# Force and moment coefficients
# dragDir     : (1.000000e+00 0.000000e+00 0.000000e+00)
# sideDir     : (0.000000e+00 0.000000e+00 -1.000000e+00)
# liftDir     : (0.000000e+00 1.000000e+00 0.000000e+00)
# rollAxis    : (1.000000e+00 0.000000e+00 0.000000e+00)
# pitchAxis   : (0.000000e+00 0.000000e+00 -1.000000e+00)
# yawAxis     : (0.000000e+00 1.000000e+00 0.000000e+00)
# magUInf     : 1.000000e-02
# lRef        : 2.000000e-01
# Aref        : 1.000000e-02
# CofR        : (0.000000e+00 0.000000e+00 0.000000e+00)
#
# Time        	Cd            	Cd(f)         	Cd(r)         	Cl            	Cl(f)         	Cl(r)         	CmPitch       	CmRoll        	CmYaw         	Cs            	Cs(f)         	Cs(r)         
0.0012        	5.707182e+08	2.820593e+08	2.886588e+08	1.250789e+07	6.254013e+06	6.253876e+06	6.852563e+01	-3.299745e+06	1.420648e+08	-3.966234e+03	1.420629e+08	-1.420668e+08
0.0012021     	2.690064e+10	1.348500e+10	1.341565e+10	-1.539999e+08	-7.700038e+07	-7.699953e+07	-4.238825e+02	3.467674e+07	6.609868e+09	-1.137680e+05	6.609811e+09	-6.609925e+09
0.00120242    	-6.783583e+09	-3.834826e+09	-2.948757e+09	1.613448e+09	8.067292e+08	8.067192e+08	5.001531e+03	-4.430345e+08	-2.088733e+09	-1.129873e+04	-2.088739e+09	2.088728e+09
0.00120281    	4.569501e+08	1.483147e+08	3.086355e+08	2.580819e+08	1.290423e+08	1.290396e+08	1.343299e+03	-8.016041e+07	1.084660e+08	1.728478e+04	1.084746e+08	-1.084573e+08
0.00120327    	1.693240e+09	8.403120e+08	8.529276e+08	1.493559e+07	7.468818e+06	7.466772e+06	1.023076e+03	-6.307799e+06	5.648503e+08	1.458198e+04	5.648576e+08	-5.648430e+08
0.00120383    	4.660094e+08	2.235291e+08	2.424803e+08	3.382648e+07	1.691355e+07	1.691293e+07	3.119958e+02	-9.475581e+06	2.729130e+08	1.246339e+04	2.729192e+08	-2.729068e+08
0.0012045     	-1.864651e+08	-9.651985e+07	-8.994528e+07	7.761678e+06	3.881296e+06	3.880383e+06	4.563446e+02	-3.287284e+06	8.954720e+07	8.956679e+03	8.955168e+07	-8.954272e+07
0.0012053     	-7.888012e+07	-4.118061e+07	-3.769951e+07	2.725293e+06	1.362834e+06	1.362459e+06	1.874448e+02	-1.740551e+06	8.380653e+07	6.567088e+03	8.380981e+07	-8.380325e+07
0.00120626    	4.992792e+07	2.629836e+07	2.362957e+07	-6.419311e+06	-3.209645e+06	-3.209666e+06	1.056173e+01	1.334396e+06	8.685935e+07	5.045639e+03	8.686187e+07	-8.685682e+07
0.00120742    	-3.431704e+06	-2.894377e+06	-5.373270e+05	2.963435e+06	1.481762e+06	1.481672e+06	4.499916e+01	-1.178525e+06	5.276884e+07	4.128487e+03	5.277091e+07	-5.276678e+07
0.0012088     	1.696408e+07	8.383732e+06	8.580350e+06	-2.602684e+05	-1.300746e+05	-1.301938e+05	5.957308e+01	-9.830890e+04	4.161817e+07	3.484492e+03	4.161991e+07	-4.161642e+07
0.00121047    	-2.811492e+06	-1.524678e+06	-1.286814e+06	5.057041e+05	2.529093e+05	2.527948e+05	5.729024e+01	-1.189322e+05	2.639191e+07	3.115351e+03	2.639346e+07	-2.639035e+07
0.00121246    	5.694771e+06	2.839605e+06	2.855166e+06	7.559733e+04	3.786590e+04	3.773143e+04	6.723731e+01	-7.780724e+03	2.147485e+07	2.804424e+03	2.147626e+07	-2.147345e+07
0.00121486    	1.342526e+07	6.538498e+06	6.886764e+06	6.550976e+05	3.275874e+05	3.275102e+05	3.859583e+01	-1.741331e+05	1.861925e+07	2.521040e+03	1.862051e+07	-1.861798e+07
0.00121774    	1.660422e+07	8.211090e+06	8.393132e+06	3.385666e+05	1.693298e+05	1.692368e+05	4.647467e+01	-9.102075e+04	1.579217e+07	2.312814e+03	1.579332e+07	-1.579101e+07
0.00122119    	1.671560e+07	8.157097e+06	8.558503e+06	7.739727e+05	3.870296e+05	3.869431e+05	4.326372e+01	-2.007030e+05	1.309223e+07	2.117291e+03	1.309329e+07	-1.309117e+07
0.00122533    	1.282183e+07	6.384722e+06	6.437105e+06	5.360617e+04	2.685263e+04	2.675354e+04	4.954529e+01	-2.619155e+04	1.013028e+07	1.921758e+03	1.013124e+07	-1.012932e+07
0.00123029    	8.355252e+06	4.179353e+06	4.175899e+06	-1.798505e+04	-8.954005e+03	-9.031047e+03	3.852129e+01	1.726623e+03	7.536968e+06	1.736937e+03	7.537836e+06	-7.536100e+06
0.00123623    	8.139374e+06	4.099865e+06	4.039508e+06	-1.158159e+05	-5.788289e+04	-5.793305e+04	2.507547e+01	3.017853e+04	6.352491e+06	1.565516e+03	6.353273e+06	-6.351708e+06
0.0012432     	5.367211e+06	2.627998e+06	2.739213e+06	2.191788e+05	1.096043e+05	1.095745e+05	1.487188e+01	-5.560761e+04	4.839216e+06	1.379919e+03	4.839906e+06	-4.838526e+06
0.00125125    	4.390966e+06	2.173987e+06	2.216979e+06	5.530152e+04	2.766020e+04	2.764132e+04	9.442956e+00	-2.149572e+04	3.981450e+06	1.196722e+03	3.982049e+06	-3.980852e+06
0.00126047    	3.923917e+06	1.905404e+06	2.018513e+06	1.905655e+05	9.529370e+04	9.527178e+04	1.096025e+01	-5.655456e+04	3.380500e+06	1.011706e+03	3.381006e+06	-3.379995e+06
0.00127097    	4.191947e+06	2.079423e+06	2.112523e+06	3.517834e+04	1.760665e+04	1.757169e+04	1.748285e+01	-1.655001e+04	3.089127e+06	8.245929e+02	3.089539e+06	-3.088715e+06
0.00128281    	4.426900e+06	2.183956e+06	2.242945e+06	8.977782e+04	4.490964e+04	4.486818e+04	2.073062e+01	-2.949431e+04	2.848417e+06	6.304987e+02	2.848732e+06	-2.848102e+06
0.0012961     	4.265826e+06	2.087851e+06	2.177975e+06	1.620542e+05	8.105168e+04	8.100252e+04	2.457998e+01	-4.506219e+04	2.572506e+06	4.301816e+02	2.572721e+06	-2.572290e+06
0.00131094    	3.509837e+06	1.727550e+06	1.782288e+06	9.787665e+04	4.896321e+04	4.891344e+04	2.488635e+01	-2.736905e+04	2.195000e+06	2.151230e+02	2.195107e+06	-2.194892e+06
0.00132735    	3.128820e+06	1.545873e+06	1.582947e+06	6.622018e+04	3.313151e+04	3.308868e+04	2.141354e+01	-1.853705e+04	1.943698e+06	-3.817269e+00	1.943696e+06	-1.943700e+06
0.00134474    	2.865703e+06	1.419179e+06	1.446524e+06	4.488069e+04	2.245348e+04	2.242722e+04	1.312982e+01	-1.367254e+04	1.760869e+06	-2.263445e+02	1.760755e+06	-1.760982e+06
0.00136281    	2.627436e+06	1.291311e+06	1.336126e+06	7.458866e+04	3.729756e+04	3.729110e+04	3.234386e+00	-2.240740e+04	1.602011e+06	-4.331304e+02	1.601794e+06	-1.602228e+06
0.00138119    	2.482734e+06	1.223548e+06	1.259187e+06	5.599030e+04	2.799012e+04	2.800019e+04	-5.034902e+00	-1.781947e+04	1.492060e+06	-6.238205e+02	1.491748e+06	-1.492372e+06
0.00140009    	2.405375e+06	1.186938e+06	1.218437e+06	4.181819e+04	2.089802e+04	2.092018e+04	-1.108003e+01	-1.574952e+04	1.395584e+06	-7.858563e+02	1.395191e+06	-1.395977e+06
0.00141964    	2.169828e+06	1.073550e+06	1.096278e+06	2.233917e+04	1.114987e+04	1.118930e+04	-1.971294e+01	-1.136430e+04	1.266406e+06	-9.274609e+02	1.265942e+06	-1.266870e+06
0.00144003    	1.960319e+06	9.698715e+05	9.904478e+05	2.185710e+04	1.090574e+04	1.095136e+04	-2.281046e+01	-1.028814e+04	1.151730e+06	-1.049291e+03	1.151205e+06	-1.152254e+06
0.00146139    	1.834910e+06	9.070451e+05	9.278646e+05	2.062804e+04	1.029079e+04	1.033725e+04	-2.323156e+01	-1.040977e+04	1.062475e+06	-1.150299e+03	1.061900e+06	-1.063050e+06
0.00148388    	1.681563e+06	8.315356e+05	8.500277e+05	1.614565e+04	8.051263e+03	8.094386e+03	-2.156129e+01	-9.246069e+03	9.713148e+05	-1.231056e+03	9.706993e+05	-9.719304e+05
0.00150658    	1.635091e+06	8.094184e+05	8.256724e+05	1.146393e+04	5.718619e+03	5.745313e+03	-1.334694e+01	-8.126992e+03	9.176605e+05	-1.265148e+03	9.170280e+05	-9.182931e+05
0.00152926    	1.561576e+06	7.770380e+05	7.845378e+05	-5.306847e+03	-2.654208e+03	-2.652639e+03	-7.840678e-01	-3.749880e+03	8.624245e+05	-1.261872e+03	8.617936e+05	-8.630554e+05
0.00155203    	1.531162e+06	7.589616e+05	7.722007e+05	7.195956e+03	3.609712e+03	3.586244e+03	1.173428e+01	-6.619519e+03	8.178625e+05	-1.242684e+03	8.172411e+05	-8.184838e+05
0.00157505    	1.566539e+06	7.812996e+05	7.852398e+05	-7.914632e+03	-3.935456e+03	-3.979177e+03	2.186052e+01	-1.970119e+03	7.900198e+05	-1.216474e+03	7.894115e+05	-7.906280e+05
0.00159836    	1.499050e+06	7.472305e+05	7.518191e+05	-4.765866e+03	-2.350250e+03	-2.415616e+03	3.268288e+01	-2.294318e+03	7.391993e+05	-1.190929e+03	7.386038e+05	-7.397948e+05
0.00162189    	1.551421e+06	7.770844e+05	7.743364e+05	-1.912478e+04	-9.522013e+03	-9.602768e+03	4.037728e+01	1.373989e+03	7.226236e+05	-1.162407e+03	7.220424e+05	-7.232048e+05
0.00164576    	1.591452e+06	7.942173e+05	7.972345e+05	-5.693187e+03	-2.800997e+03	-2.892190e+03	4.559673e+01	-1.508616e+03	7.062632e+05	-1.133071e+03	7.056967e+05	-7.068297e+05
0.0016701     	1.632097e+06	8.125777e+05	8.195189e+05	1.912719e+03	1.005021e+03	9.076976e+02	4.866183e+01	-3.470601e+03	6.910417e+05	-1.105409e+03	6.904890e+05	-6.915944e+05
0.00169479    	1.708183e+06	8.534361e+05	8.547468e+05	-7.953663e+03	-3.930344e+03	-4.023319e+03	4.648764e+01	-6.553344e+02	6.854410e+05	-1.078281e+03	6.849018e+05	-6.859801e+05
0.00171982    	1.758508e+06	8.776038e+05	8.809046e+05	-2.405216e+03	-1.161764e+03	-1.243452e+03	4.084392e+01	-1.650400e+03	6.759336e+05	-1.049894e+03	6.754087e+05	-6.764586e+05
0.00174536    	1.796207e+06	8.979917e+05	8.982154e+05	-6.470467e+03	-3.201037e+03	-3.269430e+03	3.419625e+01	-1.118187e+02	6.660363e+05	-1.026323e+03	6.655231e+05	-6.665494e+05
0.00177156    	1.848599e+06	9.238599e+05	9.247390e+05	-2.538175e+03	-1.243999e+03	-1.294177e+03	2.508898e+01	-4.395595e+02	6.601593e+05	-1.006107e+03	6.596562e+05	-6.606624e+05
0.00179846    	1.933134e+06	9.647751e+05	9.683587e+05	5.328589e+03	2.680856e+03	2.647733e+03	1.656137e+01	-1.791789e+03	6.634166e+05	-9.889497e+02	6.629221e+05	-6.639111e+05
0.00182592    	2.005804e+06	1.005492e+06	1.000312e+06	-1.139632e+04	-5.690940e+03	-5.705375e+03	7.217829e+00	2.589726e+03	6.629851e+05	-9.708679e+02	6.624996e+05	-6.634705e+05
0.001854      	2.058207e+06	1.031307e+06	1.026900e+06	-7.266623e+03	-3.634643e+03	-3.631980e+03	-1.331855e+00	2.203837e+03	6.592234e+05	-9.549192e+02	6.587459e+05	-6.597008e+05
0.00188252    	2.096963e+06	1.051386e+06	1.045577e+06	-7.862246e+03	-3.940270e+03	-3.921976e+03	-9.147071e+00	2.904497e+03	6.532692e+05	-9.391242e+02	6.527996e+05	-6.537387e+05
0.00191163    	2.131976e+06	1.068128e+06	1.063848e+06	-7.377791e+03	-3.704705e+03	-3.673086e+03	-1.580993e+01	2.140057e+03	6.464104e+05	-9.261269e+02	6.459473e+05	-6.468734e+05
0.00194125    	2.169772e+06	1.086728e+06	1.083045e+06	-6.016974e+03	-3.029416e+03	-2.987557e+03	-2.092942e+01	1.841566e+03	6.421913e+05	-9.120348e+02	6.417353e+05	-6.426473e+05
0.00197149    	2.201506e+06	1.104169e+06	1.097337e+06	-1.268871e+04	-6.368605e+03	-6.320108e+03	-2.424850e+01	3.416014e+03	6.377203e+05	-8.996495e+02	6.372704e+05	-6.381701e+05
0.00200251    	2.250688e+06	1.128038e+06	1.122650e+06	-1.015822e+04	-5.105655e+03	-5.052564e+03	-2.654530e+01	2.693608e+03	6.375841e+05	-8.868651e+02	6.371407e+05	-6.380276e+05
0.00203404    	2.279510e+06	1.142083e+06	1.137427e+06	-8.145022e+03	-4.099764e+03	-4.045258e+03	-2.725305e+01	2.327731e+03	6.328100e+05	-8.716044e+02	6.323742e+05	-6.332458e+05
0.00206591    	2.336086e+06	1.170069e+06	1.166017e+06	-6.209197e+03	-3.132015e+03	-3.077181e+03	-2.741695e+01	2.026263e+03	6.347784e+05	-8.505345e+02	6.343531e+05	-6.352036e+05
0.00209807    	2.372549e+06	1.189488e+06	1.183062e+06	-1.025295e+04	-5.153926e+03	-5.099028e+03	-2.744893e+01	3.213041e+03	6.315487e+05	-8.268408e+02	6.311352e+05	-6.319621e+05
0.0021304     	2.404608e+06	1.206474e+06	1.198134e+06	-1.670251e+04	-8.377639e+03	-8.324873e+03	-2.638308e+01	4.170393e+03	6.274288e+05	-7.998271e+02	6.270289e+05	-6.278287e+05
0.00216288    	2.429803e+06	1.219373e+06	1.210430e+06	-1.882693e+04	-9.438911e+03	-9.388016e+03	-2.544733e+01	4.471737e+03	6.228942e+05	-7.701572e+02	6.225091e+05	-6.232793e+05
0.00219547    	2.458834e+06	1.233280e+06	1.225554e+06	-1.827243e+04	-9.160495e+03	-9.111938e+03	-2.427832e+01	3.863304e+03	6.203802e+05	-7.389772e+02	6.200107e+05	-6.207497e+05
0.00222837    	2.507804e+06	1.257969e+06	1.249835e+06	-1.896139e+04	-9.504213e+03	-9.457181e+03	-2.351624e+01	4.067264e+03	6.232117e+05	-7.082125e+02	6.228576e+05	-6.235658e+05
0.00226169    	2.547961e+06	1.278336e+06	1.269625e+06	-2.065326e+04	-1.034960e+04	-1.030366e+04	-2.297010e+01	4.355603e+03	6.242051e+05	-6.783964e+02	6.238659e+05	-6.245443e+05
0.00229546    	2.591709e+06	1.299566e+06	1.292144e+06	-1.644888e+04	-8.246946e+03	-8.201935e+03	-2.250541e+01	3.711028e+03	6.261400e+05	-6.485288e+02	6.258157e+05	-6.264642e+05
0.00232965    	2.632636e+06	1.320884e+06	1.311753e+06	-1.920230e+04	-9.623186e+03	-9.579111e+03	-2.203748e+01	4.565550e+03	6.272966e+05	-6.189700e+02	6.269871e+05	-6.276061e+05
0.00236435    	2.672239e+06	1.340111e+06	1.332128e+06	-1.725468e+04	-8.648645e+03	-8.606037e+03	-2.130402e+01	3.991262e+03	6.288163e+05	-5.901219e+02	6.285212e+05	-6.291113e+05
0.0023996     	2.719059e+06	1.363681e+06	1.355377e+06	-1.697116e+04	-8.505720e+03	-8.465440e+03	-2.014023e+01	4.151888e+03	6.326996e+05	-5.621812e+02	6.324185e+05	-6.329807e+05
0.00243546    	2.763018e+06	1.386280e+06	1.376739e+06	-1.917763e+04	-9.608140e+03	-9.569495e+03	-1.932230e+01	4.770705e+03	6.360761e+05	-5.347655e+02	6.358087e+05	-6.363435e+05
0.0024719     	2.812418e+06	1.411830e+06	1.400588e+06	-2.172573e+04	-1.088081e+04	-1.084492e+04	-1.794529e+01	5.621091e+03	6.411910e+05	-5.074825e+02	6.409372e+05	-6.414447e+05
0.00250893    	2.868912e+06	1.439900e+06	1.429012e+06	-2.097492e+04	-1.050459e+04	-1.047033e+04	-1.712988e+01	5.444355e+03	6.487071e+05	-4.804704e+02	6.484668e+05	-6.489473e+05
0.0025466     	2.918860e+06	1.464990e+06	1.453870e+06	-2.114207e+04	-1.058749e+04	-1.055458e+04	-1.645801e+01	5.560195e+03	6.548909e+05	-4.548847e+02	6.546635e+05	-6.551184e+05
0.00258493    	2.957981e+06	1.484623e+06	1.473358e+06	-2.090455e+04	-1.046792e+04	-1.043662e+04	-1.564935e+01	5.632226e+03	6.587310e+05	-4.297630e+02	6.585161e+05	-6.589459e+05
0.00262392    	3.007551e+06	1.509702e+06	1.497849e+06	-2.194520e+04	-1.098710e+04	-1.095810e+04	-1.449886e+01	5.926876e+03	6.657957e+05	-4.055347e+02	6.655929e+05	-6.659984e+05
0.0026636     	3.068227e+06	1.540032e+06	1.528195e+06	-2.203214e+04	-1.103015e+04	-1.100199e+04	-1.407947e+01	5.918245e+03	6.759577e+05	-3.816665e+02	6.757669e+05	-6.761486e+05
0.00270395    	3.114084e+06	1.561737e+06	1.552347e+06	-1.637123e+04	-8.198784e+03	-8.172443e+03	-1.317044e+01	4.694557e+03	6.828035e+05	-3.586830e+02	6.826241e+05	-6.829828e+05
0.00274497    	3.172789e+06	1.592171e+06	1.580618e+06	-1.945291e+04	-9.738705e+03	-9.714201e+03	-1.225185e+01	5.776368e+03	6.930659e+05	-3.360480e+02	6.928979e+05	-6.932339e+05
0.00278661    	3.231651e+06	1.621553e+06	1.610098e+06	-1.878466e+04	-9.403541e+03	-9.381122e+03	-1.120920e+01	5.727570e+03	7.034513e+05	-3.138889e+02	7.032944e+05	-7.036083e+05
0.00282887    	3.277467e+06	1.644519e+06	1.632948e+06	-1.835842e+04	-9.189029e+03	-9.169391e+03	-9.819119e+00	5.785398e+03	7.113933e+05	-2.929656e+02	7.112468e+05	-7.115398e+05
0.00287119    	3.337990e+06	1.674790e+06	1.663200e+06	-1.870469e+04	-9.360863e+03	-9.343828e+03	-8.517185e+00	5.795116e+03	7.222982e+05	-2.707293e+02	7.221628e+05	-7.224336e+05
0.00291347    	3.393213e+06	1.703132e+06	1.690081e+06	-2.066543e+04	-1.034048e+04	-1.032496e+04	-7.762381e+00	6.525806e+03	7.322930e+05	-2.492258e+02	7.321684e+05	-7.324176e+05
0.00295572    	3.445810e+06	1.729435e+06	1.716374e+06	-2.087299e+04	-1.044330e+04	-1.042969e+04	-6.807504e+00	6.530416e+03	7.421315e+05	-2.288871e+02	7.420170e+05	-7.422459e+05
0.00299795    	3.498735e+06	1.755836e+06	1.742899e+06	-2.004317e+04	-1.002737e+04	-1.001580e+04	-5.781778e+00	6.468477e+03	7.525980e+05	-2.098434e+02	7.524931e+05	-7.527029e+05
0.00304015    	3.545481e+06	1.778774e+06	1.766707e+06	-1.784480e+04	-8.927050e+03	-8.917748e+03	-4.651153e+00	6.033060e+03	7.619524e+05	-1.922326e+02	7.618563e+05	-7.620485e+05
0.00308231    	3.593615e+06	1.804191e+06	1.789424e+06	-2.344357e+04	-1.172547e+04	-1.171810e+04	-3.682027e+00	7.383590e+03	7.718673e+05	-1.759097e+02	7.717793e+05	-7.719552e+05
0.00312442    	3.636807e+06	1.825567e+06	1.811240e+06	-2.273402e+04	-1.136996e+04	-1.136406e+04	-2.948249e+00	7.163644e+03	7.809373e+05	-1.607911e+02	7.808569e+05	-7.810177e+05
0.00316649    	3.685817e+06	1.851227e+06	1.834591e+06	-2.653191e+04	-1.326826e+04	-1.326365e+04	-2.308326e+00	8.318055e+03	7.919325e+05	-1.468841e+02	7.918591e+05	-7.920060e+05
0.00320853    	3.738347e+06	1.876700e+06	1.861646e+06	-2.300195e+04	-1.150243e+04	-1.149953e+04	-1.450937e+00	7.526968e+03	8.041939e+05	-1.342009e+02	8.041268e+05	-8.042610e+05
0.00325053    	3.782576e+06	1.899817e+06	1.882759e+06	-2.724089e+04	-1.362116e+04	-1.361973e+04	-7.175800e-01	8.529143e+03	8.150378e+05	-1.227673e+02	8.149764e+05	-8.150992e+05
0.0032925     	3.816074e+06	1.916353e+06	1.899720e+06	-2.658418e+04	-1.329194e+04	-1.329224e+04	1.518591e-01	8.316472e+03	8.235444e+05	-1.125125e+02	8.234882e+05	-8.236007e+05
0.00333445    	3.863106e+06	1.940443e+06	1.922664e+06	-2.853860e+04	-1.426857e+04	-1.427003e+04	7.295142e-01	8.889482e+03	8.357014e+05	-1.035319e+02	8.356496e+05	-8.357532e+05
0.00337638    	3.918970e+06	1.967987e+06	1.950983e+06	-2.700069e+04	-1.349893e+04	-1.350176e+04	1.416688e+00	8.502042e+03	8.503129e+05	-9.600973e+01	8.502649e+05	-8.503610e+05
0.00341828    	3.968533e+06	1.993171e+06	1.975363e+06	-2.905098e+04	-1.452350e+04	-1.452748e+04	1.991012e+00	8.904046e+03	8.635307e+05	-8.982482e+01	8.634857e+05	-8.635756e+05
0.00346017    	4.016201e+06	2.016117e+06	2.000084e+06	-2.508658e+04	-1.254069e+04	-1.254588e+04	2.595129e+00	8.016144e+03	8.764694e+05	-8.463802e+01	8.764271e+05	-8.765117e+05
0.00350204    	4.066366e+06	2.041361e+06	2.025005e+06	-2.627610e+04	-1.313506e+04	-1.314105e+04	2.994212e+00	8.177949e+03	8.904762e+05	-7.986134e+01	8.904363e+05	-8.905162e+05
0.00354389    	4.110135e+06	2.063068e+06	2.047067e+06	-2.573010e+04	-1.286161e+04	-1.286849e+04	3.442318e+00	8.000207e+03	9.027548e+05	-7.571813e+01	9.027170e+05	-9.027927e+05
0.00358571    	4.153688e+06	2.085386e+06	2.068301e+06	-2.758295e+04	-1.378761e+04	-1.379534e+04	3.863943e+00	8.542426e+03	9.151626e+05	-7.249255e+01	9.151263e+05	-9.151988e+05
0.00362749    	4.204001e+06	2.110429e+06	2.093572e+06	-2.704976e+04	-1.352073e+04	-1.352903e+04	4.149938e+00	8.428625e+03	9.290863e+05	-6.972806e+01	9.290514e+05	-9.291211e+05
0.00366918    	4.254789e+06	2.136741e+06	2.118048e+06	-3.102044e+04	-1.550568e+04	-1.551476e+04	4.539289e+00	9.346823e+03	9.428399e+05	-6.701905e+01	9.428064e+05	-9.428734e+05
0.00371078    	4.300685e+06	2.158826e+06	2.141859e+06	-2.807627e+04	-1.403306e+04	-1.404322e+04	5.079375e+00	8.483420e+03	9.553619e+05	-6.478522e+01	9.553295e+05	-9.553943e+05
0.00375231    	4.347572e+06	2.182872e+06	2.164700e+06	-3.019989e+04	-1.509445e+04	-1.510543e+04	5.492367e+00	9.086061e+03	9.683572e+05	-6.261580e+01	9.683259e+05	-9.683885e+05
0.00379377    	4.393450e+06	2.205519e+06	2.187931e+06	-2.893545e+04	-1.446147e+04	-1.447398e+04	6.253837e+00	8.794150e+03	9.811485e+05	-6.040001e+01	9.811183e+05	-9.811787e+05
0.00383516    	4.440063e+06	2.229075e+06	2.210989e+06	-2.901930e+04	-1.450282e+04	-1.451647e+04	6.825551e+00	9.042942e+03	9.944499e+05	-5.840483e+01	9.944207e+05	-9.944791e+05
0.00387649    	4.484454e+06	2.251345e+06	2.233108e+06	-2.896183e+04	-1.447292e+04	-1.448891e+04	7.991463e+00	9.118266e+03	1.007213e+06	-5.671034e+01	1.007185e+06	-1.007242e+06
0.00391773    	4.530193e+06	2.275099e+06	2.255094e+06	-3.211338e+04	-1.604766e+04	-1.606572e+04	9.028919e+00	1.000270e+04	1.020171e+06	-5.513185e+01	1.020144e+06	-1.020199e+06
0.00395885    	4.573170e+06	2.295659e+06	2.277511e+06	-2.816268e+04	-1.407124e+04	-1.409144e+04	1.009746e+01	9.074047e+03	1.032298e+06	-5.364030e+01	1.032271e+06	-1.032324e+06
0.00399987    	4.617670e+06	2.318587e+06	2.299084e+06	-3.157923e+04	-1.577855e+04	-1.580068e+04	1.106687e+01	9.751638e+03	1.044888e+06	-5.202657e+01	1.044862e+06	-1.044914e+06
0.00404077    	4.663650e+06	2.341282e+06	2.322367e+06	-3.045276e+04	-1.521418e+04	-1.523858e+04	1.219964e+01	9.457546e+03	1.057725e+06	-5.030260e+01	1.057700e+06	-1.057750e+06
0.00408158    	4.709998e+06	2.365010e+06	2.344988e+06	-3.250356e+04	-1.623864e+04	-1.626492e+04	1.313703e+01	1.001093e+04	1.070705e+06	-4.847438e+01	1.070681e+06	-1.070729e+06
0.00412228    	4.756456e+06	2.388051e+06	2.368405e+06	-3.162180e+04	-1.579653e+04	-1.582527e+04	1.436572e+01	9.822861e+03	1.083743e+06	-4.653764e+01	1.083720e+06	-1.083766e+06
0.00416289    	4.798670e+06	2.409580e+06	2.389089e+06	-3.346404e+04	-1.671612e+04	-1.674792e+04	1.590012e+01	1.024551e+04	1.095746e+06	-4.424456e+01	1.095724e+06	-1.095768e+06
0.0042034     	4.840421e+06	2.430063e+06	2.410357e+06	-3.207126e+04	-1.601778e+04	-1.605348e+04	1.785285e+01	9.852842e+03	1.107597e+06	-4.194434e+01	1.107576e+06	-1.107618e+06
0.00424382    	4.881405e+06	2.450871e+06	2.430535e+06	-3.339307e+04	-1.667658e+04	-1.671650e+04	1.995935e+01	1.016804e+04	1.119334e+06	-3.961411e+01	1.119314e+06	-1.119353e+06
0.00428415    	4.922472e+06	2.471192e+06	2.451280e+06	-3.284948e+04	-1.640246e+04	-1.644702e+04	2.227634e+01	9.956205e+03	1.131360e+06	-3.731276e+01	1.131341e+06	-1.131379e+06
0.0043244     	4.962917e+06	2.491817e+06	2.471100e+06	-3.428036e+04	-1.711501e+04	-1.716535e+04	2.517075e+01	1.035864e+04	1.142950e+06	-3.488236e+01	1.142932e+06	-1.142967e+06
0.00436456    	5.004078e+06	2.512286e+06	2.491793e+06	-3.348156e+04	-1.671233e+04	-1.676923e+04	2.845229e+01	1.024640e+04	1.154664e+06	-3.237366e+01	1.154648e+06	-1.154680e+06
0.00440464    	5.047531e+06	2.534247e+06	2.513284e+06	-3.374658e+04	-1.684143e+04	-1.690514e+04	3.185597e+01	1.048128e+04	1.166662e+06	-2.974442e+01	1.166647e+06	-1.166677e+06
0.00444464    	5.088224e+06	2.554531e+06	2.533692e+06	-3.319301e+04	-1.656108e+04	-1.663192e+04	3.541883e+01	1.041939e+04	1.178067e+06	-2.713389e+01	1.178053e+06	-1.178081e+06
0.00448455    	5.129194e+06	2.575368e+06	2.553826e+06	-3.453766e+04	-1.723002e+04	-1.730764e+04	3.880773e+01	1.077146e+04	1.189553e+06	-2.430466e+01	1.189541e+06	-1.189565e+06
0.0045244     	5.170043e+06	2.595910e+06	2.574134e+06	-3.527977e+04	-1.759777e+04	-1.768200e+04	4.211452e+01	1.088802e+04	1.201105e+06	-2.141544e+01	1.201095e+06	-1.201116e+06
0.00456417    	5.209261e+06	2.615577e+06	2.593685e+06	-3.583025e+04	-1.787018e+04	-1.796006e+04	4.493893e+01	1.094593e+04	1.212234e+06	-1.836129e+01	1.212225e+06	-1.212243e+06
0.00460386    	5.247650e+06	2.634856e+06	2.612794e+06	-3.628054e+04	-1.809215e+04	-1.818839e+04	4.811820e+01	1.103060e+04	1.223208e+06	-1.510408e+01	1.223201e+06	-1.223216e+06
0.00464348    	5.286070e+06	2.654383e+06	2.631687e+06	-3.731206e+04	-1.860474e+04	-1.870732e+04	5.129178e+01	1.134829e+04	1.234161e+06	-1.163936e+01	1.234155e+06	-1.234167e+06
0.00468303    	5.325746e+06	2.674024e+06	2.651723e+06	-3.621937e+04	-1.805593e+04	-1.816343e+04	5.374975e+01	1.115060e+04	1.245456e+06	-8.142928e+00	1.245452e+06	-1.245460e+06
0.0047225     	5.367639e+06	2.694969e+06	2.672670e+06	-3.591481e+04	-1.790118e+04	-1.801363e+04	5.622654e+01	1.114966e+04	1.257233e+06	-4.433059e+00	1.257231e+06	-1.257235e+06
0.00476184    	5.410715e+06	2.716427e+06	2.694288e+06	-3.507119e+04	-1.747676e+04	-1.759443e+04	5.883655e+01	1.106961e+04	1.269079e+06	-7.072764e-01	1.269079e+06	-1.269080e+06
0.00480099    	5.452273e+06	2.737671e+06	2.714602e+06	-3.650666e+04	-1.819227e+04	-1.831439e+04	6.105686e+01	1.153487e+04	1.280307e+06	2.947117e+00	1.280309e+06	-1.280306e+06
0.00483994    	5.491978e+06	2.757587e+06	2.734391e+06	-3.679486e+04	-1.833420e+04	-1.846066e+04	6.323227e+01	1.159792e+04	1.291266e+06	6.535662e+00	1.291269e+06	-1.291263e+06
0.00487871    	5.532750e+06	2.778098e+06	2.754652e+06	-3.727625e+04	-1.857303e+04	-1.870322e+04	6.509728e+01	1.172272e+04	1.302580e+06	1.000199e+01	1.302585e+06	-1.302575e+06
0.00491726    	5.573658e+06	2.798455e+06	2.775203e+06	-3.713175e+04	-1.849874e+04	-1.863301e+04	6.713694e+01	1.162588e+04	1.313911e+06	1.329248e+01	1.313918e+06	-1.313904e+06
0.00495562    	5.612810e+06	2.818010e+06	2.794800e+06	-3.736869e+04	-1.861537e+04	-1.875332e+04	6.897512e+01	1.160465e+04	1.324640e+06	1.656976e+01	1.324648e+06	-1.324632e+06
0.00499378    	5.651225e+06	2.837125e+06	2.814100e+06	-3.695098e+04	-1.840486e+04	-1.854612e+04	7.062737e+01	1.151280e+04	1.335275e+06	1.957315e+01	1.335285e+06	-1.335266e+06
0.00503175    	5.688822e+06	2.855891e+06	2.832931e+06	-3.590415e+04	-1.787988e+04	-1.802426e+04	7.218994e+01	1.148003e+04	1.345754e+06	2.219929e+01	1.345765e+06	-1.345742e+06
0.00506953    	5.726954e+06	2.874877e+06	2.852078e+06	-3.533453e+04	-1.759380e+04	-1.774073e+04	7.346659e+01	1.139958e+04	1.356315e+06	2.443866e+01	1.356328e+06	-1.356303e+06
0.00510713    	5.762867e+06	2.892987e+06	2.869880e+06	-3.547268e+04	-1.766127e+04	-1.781141e+04	7.507180e+01	1.155367e+04	1.366244e+06	2.659485e+01	1.366258e+06	-1.366231e+06
0.00514455    	5.801690e+06	2.912666e+06	2.889024e+06	-3.613229e+04	-1.798952e+04	-1.814277e+04	7.662727e+01	1.182113e+04	1.376838e+06	2.863612e+01	1.376852e+06	-1.376823e+06
0.00518179    	5.838691e+06	2.931314e+06	2.907378e+06	-3.615127e+04	-1.799728e+04	-1.815399e+04	7.835364e+01	1.196781e+04	1.387006e+06	3.056135e+01	1.387022e+06	-1.386991e+06
0.00521885    	5.875903e+06	2.950231e+06	2.925673e+06	-3.731357e+04	-1.857706e+04	-1.873651e+04	7.972513e+01	1.227921e+04	1.397298e+06	3.237997e+01	1.397314e+06	-1.397282e+06
0.00525575    	5.911966e+06	2.968215e+06	2.943751e+06	-3.731429e+04	-1.857614e+04	-1.873815e+04	8.100552e+01	1.223201e+04	1.407270e+06	3.401937e+01	1.407287e+06	-1.407253e+06
0.00529249    	5.947473e+06	2.985940e+06	2.961533e+06	-3.700338e+04	-1.841955e+04	-1.858383e+04	8.213909e+01	1.220349e+04	1.417200e+06	3.556065e+01	1.417218e+06	-1.417182e+06
0.00532906    	5.983580e+06	3.003944e+06	2.979636e+06	-3.678286e+04	-1.830818e+04	-1.847468e+04	8.324745e+01	1.215433e+04	1.427231e+06	3.701158e+01	1.427249e+06	-1.427212e+06
0.00536548    	6.019185e+06	3.022035e+06	2.997150e+06	-3.814345e+04	-1.898752e+04	-1.915593e+04	8.420173e+01	1.244225e+04	1.437175e+06	3.828154e+01	1.437194e+06	-1.437156e+06
0.00540174    	6.053523e+06	3.039143e+06	3.014380e+06	-3.793545e+04	-1.888258e+04	-1.905287e+04	8.514083e+01	1.238184e+04	1.446754e+06	3.938469e+01	1.446774e+06	-1.446735e+06
0.00543786    	6.086258e+06	3.055533e+06	3.030725e+06	-3.796727e+04	-1.889773e+04	-1.906954e+04	8.590348e+01	1.240425e+04	1.455856e+06	4.040490e+01	1.455877e+06	-1.455836e+06
0.00547382    	6.119134e+06	3.071949e+06	3.047185e+06	-3.793949e+04	-1.888319e+04	-1.905630e+04	8.655487e+01	1.238230e+04	1.464964e+06	4.130072e+01	1.464985e+06	-1.464944e+06
0.00550965    	6.152544e+06	3.088763e+06	3.063782e+06	-3.832478e+04	-1.907528e+04	-1.924950e+04	8.711009e+01	1.249049e+04	1.474234e+06	4.212698e+01	1.474255e+06	-1.474213e+06
0.00554533    	6.185450e+06	3.105114e+06	3.080336e+06	-3.774214e+04	-1.878340e+04	-1.895873e+04	8.766502e+01	1.238878e+04	1.483334e+06	4.290251e+01	1.483356e+06	-1.483313e+06
0.00558088    	6.218854e+06	3.121871e+06	3.096983e+06	-3.796058e+04	-1.889207e+04	-1.906851e+04	8.822319e+01	1.244367e+04	1.492533e+06	4.362619e+01	1.492554e+06	-1.492511e+06
0.00561629    	6.250654e+06	3.137973e+06	3.112681e+06	-3.913340e+04	-1.947796e+04	-1.965543e+04	8.873560e+01	1.264599e+04	1.501268e+06	4.432845e+01	1.501290e+06	-1.501246e+06
0.00565157    	6.284071e+06	3.154628e+06	3.129443e+06	-3.873673e+04	-1.927925e+04	-1.945749e+04	8.911975e+01	1.259263e+04	1.510404e+06	4.499050e+01	1.510427e+06	-1.510382e+06
0.00568673    	6.315172e+06	3.170135e+06	3.145036e+06	-3.823209e+04	-1.902668e+04	-1.920541e+04	8.936552e+01	1.254934e+04	1.518939e+06	4.559829e+01	1.518962e+06	-1.518916e+06
0.00572176    	6.347554e+06	3.186437e+06	3.161117e+06	-3.816401e+04	-1.899220e+04	-1.917182e+04	8.981045e+01	1.265983e+04	1.527840e+06	4.616579e+01	1.527863e+06	-1.527817e+06
0.00575667    	6.377850e+06	3.201806e+06	3.176044e+06	-3.886286e+04	-1.934153e+04	-1.952133e+04	8.990219e+01	1.288109e+04	1.536234e+06	4.668633e+01	1.536257e+06	-1.536211e+06
0.00579146    	6.408693e+06	3.217160e+06	3.191533e+06	-3.843010e+04	-1.912514e+04	-1.930497e+04	8.991279e+01	1.281393e+04	1.544757e+06	4.712458e+01	1.544781e+06	-1.544734e+06
0.00582614    	6.438093e+06	3.231851e+06	3.206242e+06	-3.811620e+04	-1.896830e+04	-1.914790e+04	8.980303e+01	1.280448e+04	1.552855e+06	4.751405e+01	1.552879e+06	-1.552831e+06
0.0058607     	6.468512e+06	3.247171e+06	3.221341e+06	-3.834218e+04	-1.908137e+04	-1.926081e+04	8.971930e+01	1.291479e+04	1.561174e+06	4.785536e+01	1.561198e+06	-1.561150e+06
0.00589516    	6.498516e+06	3.262151e+06	3.236365e+06	-3.813626e+04	-1.897857e+04	-1.915769e+04	8.955757e+01	1.289292e+04	1.569346e+06	4.814146e+01	1.569371e+06	-1.569322e+06
0.00592951    	6.526959e+06	3.276453e+06	3.250506e+06	-3.819478e+04	-1.900814e+04	-1.918664e+04	8.924987e+01	1.297324e+04	1.577246e+06	4.837608e+01	1.577270e+06	-1.577222e+06
0.00596375    	6.556487e+06	3.291128e+06	3.265359e+06	-3.773068e+04	-1.877647e+04	-1.895421e+04	8.886792e+01	1.288455e+04	1.585391e+06	4.858646e+01	1.585415e+06	-1.585367e+06
0.0059979     	6.585384e+06	3.305576e+06	3.279808e+06	-3.753129e+04	-1.867717e+04	-1.885412e+04	8.847546e+01	1.288441e+04	1.593353e+06	4.871534e+01	1.593377e+06	-1.593328e+06
0.00603195    	6.614503e+06	3.320188e+06	3.294315e+06	-3.761996e+04	-1.872181e+04	-1.889815e+04	8.816640e+01	1.293640e+04	1.601301e+06	4.880211e+01	1.601325e+06	-1.601277e+06
0.00606591    	6.643542e+06	3.334835e+06	3.308707e+06	-3.801198e+04	-1.891816e+04	-1.909382e+04	8.783103e+01	1.306405e+04	1.609215e+06	4.882793e+01	1.609240e+06	-1.609191e+06
0.00609977    	6.670311e+06	3.348461e+06	3.321850e+06	-3.903191e+04	-1.942872e+04	-1.960319e+04	8.723548e+01	1.330569e+04	1.616532e+06	4.879705e+01	1.616557e+06	-1.616508e+06
0.00613354    	6.697005e+06	3.361883e+06	3.335121e+06	-3.922195e+04	-1.952443e+04	-1.969751e+04	8.654088e+01	1.338107e+04	1.623831e+06	4.869958e+01	1.623855e+06	-1.623806e+06
0.00616723    	6.724333e+06	3.375352e+06	3.348981e+06	-3.830068e+04	-1.906439e+04	-1.923629e+04	8.595012e+01	1.318524e+04	1.631264e+06	4.856789e+01	1.631288e+06	-1.631239e+06
0.00620083    	6.750831e+06	3.388525e+06	3.362306e+06	-3.804519e+04	-1.893716e+04	-1.910803e+04	8.543048e+01	1.310984e+04	1.638490e+06	4.839685e+01	1.638514e+06	-1.638466e+06
0.00623434    	6.778838e+06	3.402661e+06	3.376177e+06	-3.837209e+04	-1.910140e+04	-1.927069e+04	8.464553e+01	1.324183e+04	1.646026e+06	4.820164e+01	1.646050e+06	-1.646002e+06